LAMMPS data file via write_data, version 22 Jul 2025, timestep = 40000, units = real

648 atoms
2 atom types
432 bonds
1 bond types
216 angles
1 angle types

-0.034030771343635635 18.678528771343196 xlo xhi
-0.034030771343635635 18.678528771343196 ylo yhi
-0.034030771343635635 18.678528771343196 zlo zhi

Masses

1 15.9994
2 1.008

Pair Coeffs # lj/cut/coul/long

1 0.15535 3.166
2 0 0

Bond Coeffs # harmonic

1 553.935 1

Angle Coeffs # harmonic

1 45.767 109.47

Atoms # full

4 2 1 -0.8476 3.1437948653471155 4.851808949455043 7.862114472256564 0 0 0
6 2 2 0.4238 3.200712965667128 5.845136154426996 7.646564019899877 0 0 0
528 176 2 0.4238 3.8364028768762353 3.951450718970267 6.215490087871748 1 1 0
573 191 2 0.4238 2.8788181567853126 5.634541390015353 3.523595592199459 1 0 1
384 128 2 0.4238 1.3419059547668455 5.752681294395151 5.120198997611481 0 0 0
383 128 2 0.4238 1.8075385041069811 7.209936985297445 4.836485672636329 0 0 0
382 128 1 -0.8476 2.2045582790563905 6.28342957794565 4.898974331151411 0 0 0
571 191 1 -0.8476 3.2941753313878137 5.1383153833486475 2.74851302150161 1 0 1
68 23 2 0.4238 3.0811352350805126 1.4792319579516013 1.7180227262919359 0 0 0
378 126 2 0.4238 4.130821678198556 6.877627723429311 2.2678114309316864 0 0 1
572 191 2 0.4238 4.272900797031767 4.966111749230506 3.0806246036244023 1 0 1
646 216 1 -0.8476 2.0722605015569893 2.9932696288481075 1.510476899118604 1 0 1
647 216 2 0.4238 2.6862112601899453 3.5080680532463835 2.1827649512420857 1 0 1
420 140 2 0.4238 3.9220987003041654 6.94660522726364 5.453872744244508 0 0 0
648 216 2 0.4238 1.1674037756465607 2.948132947667276 2.02587344035318 1 0 1
67 23 1 -0.8476 3.258931059927201 0.5189845628076754 1.687758092270222 0 0 0
377 126 2 0.4238 5.263720937914383 7.7326724571216054 3.0570430309082353 0 0 1
69 23 2 0.4238 3.889874435116482 0.42054321907474645 0.8520007552449865 0 0 0
615 205 2 0.4238 4.114369923508555 4.869731157722123 9.062472328906654 1 1 -1
376 126 1 -0.8476 4.6413678500887885 7.726834734260943 2.3138521720560337 0 0 1
566 189 2 0.4238 0.6143196473310146 1.507320568060538 7.512155980058535 1 0 0
565 189 1 -0.8476 0.4502145621794185 1.111252383587851 8.40050685128454 1 0 0
419 140 2 0.4238 5.423066975654206 7.275695380477693 5.488366638252658 0 0 0
498 166 2 0.4238 3.6758459173633544 7.895730376721798 7.441341745024579 1 0 0
244 82 1 -0.8476 0.5681748970643588 8.444620166201783 4.1862018809061565 1 0 1
496 166 1 -0.8476 3.3154310111340473 7.963943216337974 8.374186265297773 1 0 0
527 176 2 0.4238 4.7869000458403335 2.661315277022514 5.786380471126926 1 1 0
526 176 1 -0.8476 4.5257997020614935 3.6222778039844346 5.536431557071179 1 1 0
418 140 1 -0.8476 4.680890441401123 7.0488954999690705 6.140729858077 0 0 0
404 135 2 0.4238 1.6408911613350026 8.063785703839594 8.20564973598194 1 0 0
40 14 1 -0.8476 1.2092122000609908 1.5983101362126335 5.410161848086099 0 0 0
403 135 1 -0.8476 0.6429258734105849 8.109213592092985 8.028479774355368 1 0 0
20 7 2 0.4238 5.86356167338494 7.938498621400457 0.43927629798181433 0 0 0
246 82 2 0.4238 1.4139900893688493 8.873319489641107 3.828076708402966 1 0 1
41 14 2 0.4238 1.9047103216711934 2.3290248946754493 5.471233159618325 0 0 0
42 14 2 0.4238 0.9123541502336913 1.448047055665367 4.455805737465865 0 0 0
405 135 2 0.4238 0.38994533016039135 9.124933764518333 8.131966154488913 1 0 0
93 31 2 0.4238 3.4697123770044125 8.856325370563082 2.6918814950604126 0 1 0
5 2 2 0.4238 2.1844426338812184 4.536891732320502 7.72418286547369 0 0 0
164 55 2 0.4238 5.336544778223227 3.7042197670987096 3.892875540558815 0 0 0
163 55 1 -0.8476 5.73440644708306 3.658547061188541 2.9476917916597025 0 0 0
441 147 2 0.4238 0.144668330196499 3.8564677769275892 6.314301301203245 2 0 0
269 90 2 0.4238 4.722888974790731 0.9014389031495136 7.385205281691198 0 0 1
150 50 2 0.4238 5.990532516556727 2.315815963975226 7.678788346588494 0 0 0
297 99 2 0.4238 5.830523667927038 5.598014961223387 6.969297222022706 0 0 0
165 55 2 0.4238 6.064572670045225 2.682248724176619 2.8860088865748823 0 0 0
270 90 2 0.4238 5.801252802055491 0.45059635725715425 6.214081327576364 0 0 1
245 82 2 0.4238 0.3478004010972502 8.90138651640871 5.063836699928028 1 0 1
439 147 1 -0.8476 0.4695813927976885 4.143463030861584 7.2504014854878385 2 0 0
102 34 2 0.4238 1.1646729283051536 0.6850119634848318 2.354539999157364 0 1 0
497 166 2 0.4238 4.010660938375648 8.575164553200363 8.768602840592955 1 0 0
268 90 1 -0.8476 5.301700027634703 1.2327459591396006 6.609156990782958 0 0 1
121 41 1 -0.8476 4.055808343697341 0.7565873857797955 8.95616761125873 0 0 0
100 34 1 -0.8476 0.4957579223004861 0.5005441584096928 3.129104438454514 0 1 0
476 159 2 0.4238 5.769917140999575 0.5015730357085486 0.14059861012962216 1 0 0
16 6 1 -0.8476 6.695419079959409 7.272064662283799 4.225815745558519 0 0 0
18 6 2 0.4238 7.202341973777544 6.805230048834863 3.460578859268156 0 0 0
592 198 1 -0.8476 7.584817767114812 0.30295336705785064 0.5399013272993376 1 1 1
324 108 2 0.4238 9.410458520486442 7.406632195635598 5.283991853494985 0 0 2
17 6 2 0.4238 6.835060939581474 8.279483652741272 4.214906139659736 0 0 0
452 151 2 0.4238 9.367483334767899 0.4026224216461574 8.177754209049846 1 0 -1
594 198 2 0.4238 8.41234029058365 0.7582887944160753 0.2494211792439461 1 1 1
249 83 2 0.4238 9.778130192745447 6.365421214876773 0.40957193176094864 0 0 1
637 213 1 -0.8476 10.220000290709688 1.3061931458200207 1.033336624431637 1 1 0
255 85 2 0.4238 9.954195277937396 8.332868656144266 1.6177505953658824 0 0 0
248 83 2 0.4238 8.411314541305346 6.5280279454554435 1.1123023883737206 0 0 1
554 185 2 0.4238 6.598746363129555 5.642098133852816 0.8210250058593458 1 0 1
553 185 1 -0.8476 6.888502666565061 5.801228418545776 1.7720699775296838 1 0 1
39 13 2 0.4238 7.835925228176067 8.314009074667428 7.83621139040005 0 -1 0
247 83 1 -0.8476 9.40564309548728 6.776416254667881 1.2086981103942385 0 0 1
555 185 2 0.4238 6.4335423490229 5.052886192590462 2.2624876558090676 1 0 1
149 50 2 0.4238 6.635923783736604 3.7536804883826305 8.029865591831573 0 0 0
602 201 2 0.4238 6.747290906087123 0.5996693627732926 2.166154211038619 0 1 0
296 99 2 0.4238 7.068864944153751 6.162772894379292 7.739647230443494 0 0 0
645 215 2 0.4238 9.639137334515313 2.0045896974040525 6.290340179984479 0 1 1
276 92 2 0.4238 8.207563059974856 5.690945853347791 5.8133198762812555 0 1 0
158 53 2 0.4238 10.239428646954961 6.075589047882835 3.9459927411091305 0 0 0
159 53 2 0.4238 10.3460932820776 6.120204860881125 2.4616621457333503 0 0 0
157 53 1 -0.8476 10.899349680970214 5.756560021610346 3.2354492125910026 0 0 0
601 201 1 -0.8476 6.431337530910359 1.0955011869408287 2.9583130977180994 0 1 0
295 99 1 -0.8476 6.717565696310655 5.272106165216131 7.404559023142583 0 0 0
275 92 2 0.4238 8.98399414859918 4.384322022476681 5.284442870239583 0 1 0
274 92 1 -0.8476 9.0653270217432 5.387035373849615 5.449075418228628 0 1 0
148 50 1 -0.8476 6.6469767339668495 2.783660629766113 8.315173317125147 0 0 0
99 33 2 0.4238 11.226363039032185 4.046715486310984 3.4421547119244345 -1 1 1
643 215 1 -0.8476 10.192990997098399 1.587785432458602 7.035083171262816 0 1 1
55 19 1 -0.8476 9.00558253404025 2.481265871043051 4.955426269681542 -1 0 0
37 13 1 -0.8476 7.8625328071645715 7.531511891045268 8.496021023294569 0 -1 0
323 108 2 0.4238 9.132677587141089 8.946753449532224 4.894265551284006 0 0 2
57 19 2 0.4238 8.384982072153521 1.9445070953050967 4.374027466206731 -1 0 0
638 213 2 0.4238 10.406020311489268 1.8234169344781712 1.8832683168766955 1 1 0
97 33 1 -0.8476 11.255178342258075 3.0402291168780273 3.651328437600876 -1 1 1
56 19 2 0.4238 9.875037124634071 2.7480350724064566 4.5123284589924 -1 0 0
294 98 2 0.4238 9.919087071803052 5.362198368780129 6.928579456021429 0 1 0
293 98 2 0.4238 9.937065705329713 4.848711809634722 8.533184214381327 0 1 0
292 98 1 -0.8476 10.516624817251023 5.26547277869422 7.766087754840535 0 1 0
322 108 1 -0.8476 9.68886794946833 8.112159798437752 4.633661101091994 0 0 2
644 215 2 0.4238 11.157152812337992 1.957195866804496 6.906223559172373 0 1 1
254 85 2 0.4238 9.886455959670345 8.9404451767053 3.0322715138011387 0 0 0
98 33 2 0.4238 12.165100844636413 2.987258657481349 4.064739230801756 -1 1 1
64 22 1 -0.8476 12.343635749358368 8.390600320384548 5.311825549170159 -1 0 1
253 85 1 -0.8476 10.081277836002766 9.201371576430832 2.0714867288714265 0 0 0
108 36 2 0.4238 9.011322904969626 3.093123244781522 9.003963942571879 0 1 0
609 203 2 0.4238 12.371295279358653 1.570319656926468 0.00802843825658095 0 1 1
66 22 2 0.4238 11.410032167356865 8.547991515794106 4.986079860145479 -1 0 1
187 63 1 -0.8476 12.267591504150644 3.5001140323123283 6.818674165118779 -1 1 0
189 63 2 0.4238 11.623974239045237 4.175812435611115 7.22993675302776 -1 1 0
639 213 2 0.4238 10.360079870588013 0.3185202999384103 1.3009668278862567 1 1 0
273 91 2 0.4238 12.376258414241093 8.381800550900099 8.522890479647202 -1 1 -1
15 5 2 0.4238 10.656556495871692 6.502284258756013 8.705626770779604 0 -1 0
603 201 2 0.4238 6.411309279952861 0.4274148186842067 3.724428120617625 0 1 0
38 13 2 0.4238 8.612289185589683 7.767622234532871 9.130313587361787 0 -1 0
146 49 2 0.4238 15.606835089193982 0.6019052762804958 0.956611888779152 0 0 0
423 141 2 0.4238 17.960626353872314 5.168381105879893 0.3919577059214843 0 1 0
549 183 2 0.4238 18.340412408027788 3.8117601619525576 3.892343855062895 0 0 0
321 107 2 0.4238 17.033775955612196 3.225750501955414 2.0245256292213196 -1 1 1
486 162 2 0.4238 18.095308234573736 7.378875016276427 3.6671693064124193 -1 1 1
485 162 2 0.4238 17.15020250585694 6.7279094742017 2.5423056062589446 -1 1 1
484 162 1 -0.8476 17.270628971063346 6.809381562757569 3.5213511554660806 -1 1 1
421 141 1 -0.8476 17.464673603247192 5.978671676472506 0.6888322516559731 0 1 0
379 127 1 -0.8476 14.154842843650394 0.7179838525698146 3.8319608105718816 0 0 0
542 181 2 0.4238 14.47581912455451 4.329289362078441 4.399777222518874 0 0 0
335 112 2 0.4238 15.098548747821463 5.693249692035474 6.586342724553988 -1 0 1
145 49 1 -0.8476 16.019447803533218 1.5299104667230394 0.8318867142550936 0 0 0
381 127 2 0.4238 15.042688402036193 0.3332046938523496 4.125265935521894 0 0 0
626 209 2 0.4238 17.524340054439016 0.12676716283669068 4.057389709076448 0 1 1
543 181 2 0.4238 13.399495840999029 3.7581154267036956 5.4018331115255185 0 0 0
147 49 2 0.4238 15.217433186517475 2.1387429951687302 0.97490310618585 0 0 0
320 107 2 0.4238 17.842319698217512 2.0335800495069782 2.407549807328407 -1 1 1
271 91 1 -0.8476 12.832242492699207 8.878635618986102 7.777540218719041 -1 1 -1
567 189 2 0.4238 18.179273673580163 0.9879356570599972 8.560277078780475 0 0 0
188 63 2 0.4238 12.921329079297061 3.1885134773576365 7.534065166985706 -1 1 0
380 127 2 0.4238 14.06968285424682 1.6204836562730964 4.273144519141683 0 0 0
561 187 2 0.4238 12.650612415889054 6.067286797724841 3.3014508932978184 1 0 0
141 47 2 0.4238 15.839912436373753 5.424405444479308 0.4717291679534758 -1 0 1
53 18 2 0.4238 12.858363471638375 8.241362817898276 0.5566879065322715 -1 0 1
541 181 1 -0.8476 13.806883883766918 3.5785984740724044 4.478572885101264 0 0 0
65 22 2 0.4238 12.607577060206642 7.559881454655744 4.753473669966789 -1 0 1
140 47 2 0.4238 14.566377062267552 6.33235335908306 0.6923182942529538 -1 0 1
76 26 1 -0.8476 16.41247923081781 1.35167866405767 7.874282240307886 -1 1 0
52 18 1 -0.8476 13.604058812603435 7.846274730959797 1.1189661257176815 -1 0 1
225 75 2 0.4238 15.83372629872983 8.295105170258337 6.548173279287251 0 0 0
252 84 2 0.4238 14.682545349335612 6.992248001000853 4.795546187509399 -1 0 1
54 18 2 0.4238 13.986024470362539 8.70117435236578 1.505047197049207 -1 0 1
139 47 1 -0.8476 14.83878501142189 5.3348181587701085 0.6399107888753196 -1 0 1
77 26 2 0.4238 15.773482697011268 1.3235515808503084 8.64245710036481 -1 1 0
272 91 2 0.4238 12.532605458913954 8.578425961966152 6.860843758247374 -1 1 -1
251 84 2 0.4238 16.323797445842427 7.156371957806543 4.794456063545081 -1 0 1
250 84 1 -0.8476 15.494341211362062 7.0933569729684125 5.422683113337778 -1 0 1
440 147 2 0.4238 18.58201841410792 4.775834554282325 7.772863659910544 1 0 0
180 60 2 0.4238 13.593796659026296 3.29298177472662 2.3860427462857534 0 0 1
179 60 2 0.4238 14.426501458704152 3.8749337821078127 1.0540348983403707 0 0 1
408 136 2 0.4238 16.96665627593601 5.529447806162924 7.383063730508761 0 0 0
560 187 2 0.4238 13.642385069455523 7.118110074157863 2.6846316683457685 1 0 0
559 187 1 -0.8476 13.48562825017695 6.615382600059991 3.598696771161709 1 0 0
319 107 1 -0.8476 17.95178258427993 3.062841695058604 2.457070388364595 -1 1 1
78 26 2 0.4238 15.99842124591012 1.8214779549079017 7.095420111163148 -1 1 0
178 60 1 -0.8476 13.887778883664994 3.1060036699663005 1.4376309430342753 0 0 1
406 136 1 -0.8476 17.427914213892105 6.08977966867611 8.090455931558834 0 0 0
547 183 1 -0.8476 18.62169968956183 4.559595273930199 4.5345474979833025 0 0 0
336 112 2 0.4238 14.676013678049467 4.626115048288092 7.674180828687081 -1 0 1
334 112 1 -0.8476 15.239476441221726 4.732704634335208 6.832275504637722 -1 0 1
548 183 2 0.4238 17.837502289846064 5.1804570352998285 4.240357860264698 0 0 0
407 136 2 0.4238 18.126238814072988 6.786248480524793 7.780078758348748 0 0 0
184 62 1 -0.8476 13.997649184219304 2.515149867108128 8.623639602334249 0 0 0
223 75 1 -0.8476 16.191002782942217 9.166257493298245 6.990336523343271 0 0 0
186 62 2 0.4238 13.245874608272615 2.501597121518108 9.271948432550612 0 0 0
185 62 2 0.4238 14.657377515408006 3.0195062349643904 9.207869247478426 0 0 0
109 37 1 -0.8476 2.1469446911474717 8.201325812068095 16.8758819102492 0 0 -1
619 207 1 -0.8476 6.155648944187913 3.9124768435438324 14.431081981222675 1 0 0
396 132 2 0.4238 2.940894486858266 2.612686001102986 14.117069915607157 0 1 0
621 207 2 0.4238 5.46405360077505 3.891387445477736 13.70734438086577 1 0 0
395 132 2 0.4238 3.521396892758776 1.083055142656455 14.425896064451226 0 1 0
394 132 1 -0.8476 3.436428321717278 1.8001614772592804 13.701930154820296 0 1 0
457 153 1 -0.8476 2.1640764574684797 2.7705653923053184 17.586237638310976 0 0 0
438 146 2 0.4238 5.01636913790977 7.086781060499599 15.372392336637029 1 0 -1
436 146 1 -0.8476 4.931045349600863 6.785900600852572 16.335985182686425 1 0 -1
437 146 2 0.4238 4.01709493602772 7.140028449384296 16.598888227608736 1 0 -1
459 153 2 0.4238 1.3598012777917303 2.2155264274442756 17.31482030177314 0 0 0
540 180 2 0.4238 3.6525220044510185 7.690031839893914 10.36412286575549 0 0 0
538 180 1 -0.8476 4.199882550296757 7.224442775018959 11.056558380940528 0 0 0
122 41 2 0.4238 4.150840563773758 1.5858721487744707 9.576758301949562 0 0 0
291 97 2 0.4238 2.591168870233866 2.4333912202361985 10.906115032077542 0 1 -1
29 10 2 0.4238 1.4380255114634195 6.967495777168322 13.716763421180982 0 -1 0
258 86 2 0.4238 5.023085747270655 3.124414102980306 15.695368960374205 0 1 -1
26 9 2 0.4238 3.3648179351723386 7.3044863215996845 13.752831908240362 0 0 0
111 37 2 0.4238 1.862119791699339 8.380409563772812 15.938243464154388 0 0 -1
110 37 2 0.4238 1.9843816004231682 7.191385501491449 16.947576903616984 0 0 -1
198 66 2 0.4238 2.41169483565097 4.747042125560825 15.34500645462079 0 0 0
28 10 1 -0.8476 2.167334378589399 6.484155873245247 13.246928770925294 0 -1 0
196 66 1 -0.8476 2.3581991914453178 4.158287310403826 14.519633577848658 0 0 0
30 10 2 0.4238 2.092599228684695 6.737769259533934 12.262656302207455 0 -1 0
539 180 2 0.4238 4.365276294625321 6.25279588308566 10.692019000444139 0 0 0
257 86 2 0.4238 3.855311408186885 2.8251481262426523 16.763985857953813 0 1 -1
197 66 2 0.4238 2.5265285600325007 4.806372813243683 13.754523211606948 0 0 0
289 97 1 -0.8476 3.551026498389518 2.7016215464631985 11.179357080676507 0 1 -1
256 86 1 -0.8476 4.871621259445879 2.7818490435810936 16.631187449028676 0 1 -1
214 72 1 -0.8476 0.955658889091173 6.618148604948169 10.649351966564442 0 0 0
290 97 2 0.4238 3.565884860215654 2.443141700803457 12.16660435236626 0 1 -1
569 190 2 0.4238 0.3256550805485625 3.872292877376818 14.471826349951812 1 0 -1
622 208 1 -0.8476 1.7256445624435415 5.563774793040316 17.037234552170954 1 1 0
25 9 1 -0.8476 4.090628836045024 8.020639460934143 14.117071061281642 0 0 0
21 7 2 0.4238 5.866951412386066 7.668087678477585 17.593052155942292 0 0 -1
623 208 2 0.4238 2.402883225593398 5.019527940980371 17.47864790075656 1 1 0
216 72 2 0.4238 0.7075040024957235 5.617598516271325 10.687625840972954 0 0 0
215 72 2 0.4238 0.27231321145803855 7.03055414910167 9.971165597241715 0 0 0
96 32 2 0.4238 5.88295717427441 5.721311184671169 17.28387947522596 -1 1 -1
614 205 2 0.4238 4.329562799303712 4.024293125203588 10.408686051834165 1 1 -1
613 205 1 -0.8476 4.644929160088842 4.861097423313398 9.93278365525178 1 1 -1
27 9 2 0.4238 4.007123841962444 8.858179284883995 13.568364617990836 0 0 0
95 32 2 0.4238 6.152530034114733 4.159213957039477 17.51918142584805 -1 1 -1
358 120 1 -0.8476 0.38486970046569735 8.108392075911928 14.545288093173287 1 -1 0
339 113 2 0.4238 5.140049077395975 0.6536535539234567 12.36308404680483 0 0 0
489 163 2 0.4238 1.3917040226690767 8.36166502782008 11.563469775495019 1 0 -1
624 208 2 0.4238 0.8236353714966228 5.132275837466817 17.276713052487402 1 1 0
475 159 1 -0.8476 4.890874864403873 0.6134776309942518 18.378889768348188 1 0 -1
458 153 2 0.4238 2.0545564365491926 2.9702461208317894 18.609120824534475 0 0 0
260 87 2 0.4238 0.4811550097187305 2.566238452358417 9.7090351379143 0 0 0
261 87 2 0.4238 0.18148828574250497 2.9476275158208427 11.193943723350168 0 0 0
259 87 1 -0.8476 0.843458515320374 3.1419673273235977 10.469894511145327 0 0 0
477 159 2 0.4238 4.9306718934480065 1.4838343664247813 17.874126518514707 1 0 -1
63 21 2 0.4238 0.09872410338612753 0.8104611376439875 16.129707941983774 0 1 -1
385 129 1 -0.8476 3.5830974657840406 0.24372135053717692 15.715531186727182 0 1 -1
515 172 2 0.4238 5.031023806969002 8.636341634013286 11.508458128735013 0 0 0
123 41 2 0.4238 3.582841901615977 0.1499390055275749 9.591418299691094 0 0 0
360 120 2 0.4238 0.37938699607581916 9.08117190219571 14.860697461600967 1 -1 0
386 129 2 0.4238 4.166938936298816 0.2784550521686241 16.553722796150076 0 1 -1
487 163 1 -0.8476 1.7423218563949348 9.296362522351425 11.77001079194536 1 0 -1
620 207 2 0.4238 6.69884555487311 4.74767142406961 14.35901189631206 1 0 0
19 7 1 -0.8476 6.381129645611071 8.16540371288384 18.333345472132894 0 0 -1
368 123 2 0.4238 10.81626268307244 9.206005524746967 13.582960303470882 0 0 0
618 206 2 0.4238 6.810693624602418 8.976025527426193 16.971404039425803 0 1 -1
176 59 2 0.4238 9.869110394553028 2.000790888881265 18.360669256891267 0 0 0
370 124 1 -0.8476 9.455071983783634 5.1728986095499785 17.389066427013393 0 0 -1
443 148 2 0.4238 7.47028935561049 6.2475123971568935 9.760286303528577 0 0 0
372 124 2 0.4238 9.851629338067204 4.200734588590047 17.38252443047904 0 0 -1
166 56 1 -0.8476 11.296764650522666 8.693906054484977 18.204192714132226 0 1 -1
107 36 2 0.4238 8.670772956382192 4.321603004436005 10.060093620942204 0 1 0
492 164 2 0.4238 6.807107462898026 1.632695103955338 9.514287807088133 1 0 0
106 36 1 -0.8476 9.425462365963067 3.7999708857116223 9.615424969301303 0 1 0
491 164 2 0.4238 7.593591068192063 1.4012746056803453 10.89169693311429 1 0 0
490 164 1 -0.8476 7.17424258511995 0.9194218922908053 10.121269256346663 1 0 0
500 167 2 0.4238 9.000649529411245 2.332348847701085 16.199740144570292 1 1 0
114 38 2 0.4238 7.666882657286871 8.889057692724938 14.487053173456117 0 0 0
499 167 1 -0.8476 8.38048222291714 2.0319486031646226 15.449488441239643 1 1 0
586 196 1 -0.8476 8.27832149407486 1.7989060755904747 12.437446850980733 0 0 0
587 196 2 0.4238 8.876281909982263 1.7516696705120458 13.265866160157318 0 0 0
113 38 2 0.4238 7.594756295830144 7.666666729430762 13.535922587211168 0 0 0
301 101 1 -0.8476 7.941514363067125 5.703813610200246 12.99029445588972 0 0 0
302 101 2 0.4238 8.936896581017267 5.615984889513007 12.931101159165388 0 0 0
303 101 2 0.4238 7.657299472997094 5.802162231295736 12.012969742914361 0 0 0
588 196 2 0.4238 7.619238948546635 2.51694161084874 12.694093339953566 0 0 0
501 167 2 0.4238 7.70706073130908 2.7921810688345934 15.462041711602092 1 1 0
177 59 2 0.4238 10.832120795682185 2.21628390893578 17.107062563178047 0 0 0
183 61 2 0.4238 11.053851818832687 3.109976916675691 9.863338779297015 0 0 0
182 61 2 0.4238 11.401422545952402 1.638209967381334 10.394321926512701 0 0 0
442 148 1 -0.8476 7.286460771629758 5.547090070607519 10.489912243363388 0 0 0
181 61 1 -0.8476 11.826102255576737 2.552537389997413 10.250290647271077 0 0 0
193 65 1 -0.8476 11.29528025643389 5.955557549176496 15.79560095601163 0 0 0
152 51 2 0.4238 10.968162933894414 5.781695234487227 13.898851215193712 -1 0 0
194 65 2 0.4238 12.092903792585036 5.582902920365173 16.336081573062266 0 0 0
195 65 2 0.4238 10.51238140965204 5.716704366458101 16.445510139453862 0 0 0
444 148 2 0.4238 6.309198142482425 5.332524629811639 10.268567391866798 0 0 0
263 88 2 0.4238 7.970910766818342 0.5322070103520002 14.923214813579678 0 0 0
151 51 1 -0.8476 10.562426226183412 5.399519456740505 13.075509306111 -1 0 0
168 56 2 0.4238 11.290364579958919 8.851823016608611 17.19076170838871 0 1 -1
369 123 2 0.4238 10.246814986198224 8.642867133418749 12.1681499784155 0 0 0
153 51 2 0.4238 11.236009639539134 4.739244860466266 12.696384304576084 -1 0 0
175 59 1 -0.8476 9.889557484025902 2.4233929864588064 17.420225633132763 0 0 0
24 8 2 0.4238 12.07206405801197 8.685320581607948 15.198511944374918 0 0 -1
22 8 1 -0.8476 11.12197846040042 8.422961052869132 15.153580719572451 0 0 -1
112 38 1 -0.8476 7.457623938265503 8.68076937660021 13.508857513490407 0 0 0
228 76 2 0.4238 12.180686948379595 3.300328165691798 11.642580721647285 0 0 0
23 8 2 0.4238 11.204573172336255 7.391789567898231 15.293091743298328 0 0 -1
13 5 1 -0.8476 11.06768362166296 7.167951977066602 9.384808559584858 0 -1 0
371 124 2 0.4238 8.457251570509344 4.934927586876387 17.575703270947038 0 0 -1
14 5 2 0.4238 11.38206455292198 6.536402684596782 10.159539049394452 0 -1 0
94 32 1 -0.8476 6.282799978784991 5.069358724086 17.956899451821425 -1 1 -1
516 172 2 0.4238 6.206027218823271 9.152751460339774 12.452880128062437 0 0 0
167 56 2 0.4238 10.444598688503213 8.288781317828079 18.466307745850088 0 1 -1
367 123 1 -0.8476 10.952407613128155 9.26513787703768 12.540506612345538 0 0 0
604 202 1 -0.8476 16.95968558334751 8.148109416508829 12.637317223665764 0 0 0
61 21 1 -0.8476 18.5308009402506 1.4653426308677806 16.813028023314484 -1 1 -1
642 214 2 0.4238 16.59840771510045 7.337072710684775 9.486039351972694 0 0 0
581 194 2 0.4238 17.345711066866922 8.561849602643331 17.214212524415625 0 0 -1
226 76 1 -0.8476 12.674995047845412 3.7268959235291272 12.44038063006494 0 0 0
218 73 2 0.4238 18.346094371937568 3.2515305591132435 17.327133678508776 0 -1 0
598 200 1 -0.8476 17.28425838936819 2.0100283650037905 11.888238100989444 0 0 0
227 76 2 0.4238 13.532967784207107 3.1713972959753494 12.430587352399174 0 0 0
640 214 1 -0.8476 16.517149717704 8.215558726444367 10.013605221438949 0 0 0
466 156 1 -0.8476 12.789649405800052 4.688450898854176 17.75060974915948 0 0 0
454 152 1 -0.8476 14.376686043903364 5.5979797782798455 13.864637262618542 -1 0 -1
456 152 2 0.4238 13.598839532628185 5.047433557819718 13.4931977973819 -1 0 -1
162 54 2 0.4238 17.24899948369327 0.2207174923171151 10.472007789251986 -1 1 0
467 156 2 0.4238 13.392229115274676 5.145884236894444 18.391114694049406 0 0 0
568 190 1 -0.8476 18.14340486084863 3.7422153368952773 14.018141213209894 0 0 -1
173 58 2 0.4238 17.013780389240033 6.386618267539526 12.682031128612119 -1 0 0
605 202 2 0.4238 16.296320395876997 8.600102602068578 13.234608798914179 0 0 0
62 21 2 0.4238 17.777014908217833 1.0370259646529356 17.39149479607764 -1 1 -1
433 145 1 -0.8476 13.919484375872056 7.874643935758941 15.453248805389414 0 0 -1
599 200 2 0.4238 17.417557697445282 2.6914429361084955 12.612080647867893 0 0 0
495 165 2 0.4238 14.188814922093176 1.4737276131001764 14.68380849778149 0 0 0
174 58 2 0.4238 17.241359508757036 4.862236305122024 13.126252518419868 -1 0 0
219 73 2 0.4238 17.22054729589663 4.264619295629708 16.70873701416675 0 -1 0
231 77 2 0.4238 16.206742775321988 2.881400156757249 10.890292829448697 0 0 1
10 4 1 -0.8476 15.87168937102729 4.139566685569241 15.84652645048556 -1 0 -1
359 120 2 0.4238 18.341684745553845 8.09790218859907 13.859791150370983 0 -1 0
608 203 2 0.4238 13.05549878765471 1.0814093167697088 17.24841120809299 0 1 0
468 156 2 0.4238 12.957031609102685 3.7104305037930114 18.026848932295955 0 0 0
229 77 1 -0.8476 15.556519499919174 3.5950502932811146 10.502862326805511 0 0 1
435 145 2 0.4238 14.293772535199977 7.859737543435571 16.414383805416527 0 0 -1
434 145 2 0.4238 14.298552663089362 7.103488004881009 14.9789701447715 0 0 -1
582 194 2 0.4238 18.066697352959153 7.354584474367081 16.367006409009434 0 0 -1
172 58 1 -0.8476 16.696848830988664 5.478668100660509 12.471882433243062 -1 0 0
217 73 1 -0.8476 18.096450410835143 4.23006883537763 17.30709243557638 0 -1 0
580 194 1 -0.8476 17.40120308921603 7.545669662137087 17.078699889137102 0 0 -1
494 165 2 0.4238 14.809884774927495 0.8198342621609079 13.389600607296993 0 0 0
230 77 2 0.4238 15.67144240925957 4.4345890115118 11.062285706857615 0 0 1
455 152 2 0.4238 15.12247792164885 5.361087562613085 13.262458123324429 -1 0 -1
422 141 2 0.4238 17.6195904896149 6.53717314510198 18.554627974990012 0 1 -1
430 144 1 -0.8476 14.444399949299143 0.11024516170735768 16.336261764197303 0 1 0
600 200 2 0.4238 16.621140480999777 1.336110891527671 12.209262848017387 0 0 0
607 203 1 -0.8476 12.488995135274862 1.788742186635363 17.74439140533184 0 1 0
12 4 2 0.4238 15.539383020328144 4.906056146308249 15.249539914610764 -1 0 -1
570 190 2 0.4238 17.455726568455777 3.5557761768497462 14.756402844140569 0 0 -1
493 165 1 -0.8476 14.363609573726672 1.6681338117929405 13.687368463953035 0 0 0
11 4 2 0.4238 15.183245856063506 3.4094017428293486 15.642738890441619 -1 0 -1
606 202 2 0.4238 16.753555027466323 8.291591762019454 11.66912606907828 0 0 0
641 214 2 0.4238 16.191691873626453 8.890031260472126 9.356777985008877 0 0 0
48 16 2 0.4238 2.8658790391836515 14.431790087956076 7.3895842883102185 0 0 0
116 39 2 0.4238 3.3062471109618654 14.361452085318387 2.3504322236306914 0 -1 1
279 93 2 0.4238 3.7409521589097885 17.161749131591456 4.12023605960792 0 0 0
115 39 1 -0.8476 2.425045445579316 14.407211870405323 1.8583378590890791 0 -1 1
344 115 2 0.4238 2.6242310439613235 10.97861010546952 1.9220645162035424 0 0 0
356 119 2 0.4238 1.0188343193234988 18.09356978087952 8.153894136539368 0 -1 0
59 20 2 0.4238 4.930883019562489 13.659348951147868 4.554974822748481 0 0 0
60 20 2 0.4238 3.813762072905723 13.612394949800255 5.715550255220025 0 0 0
58 20 1 -0.8476 4.760023875796747 13.330225516305665 5.507107754342343 0 0 0
401 134 2 0.4238 4.29467668505254 11.766823477412743 5.2321373738563075 1 0 0
400 134 1 -0.8476 3.9149631319973905 10.824666937748614 5.138843277770775 1 0 0
299 100 2 0.4238 5.105556008364772 15.508500844481194 3.1738596257987464 0 0 1
510 170 2 0.4238 5.7050266222877895 17.280648113348438 4.516922281386384 1 -1 0
298 100 1 -0.8476 5.0976826638881185 14.459780103414024 3.1318500942773393 0 0 1
402 134 2 0.4238 3.127376018688571 10.839687118187776 5.788632580325935 1 0 0
503 168 2 0.4238 5.576603932550415 10.486855365541388 4.716401307982433 0 0 1
300 100 2 0.4238 5.790667171276005 14.312227566507524 2.4336486584471846 0 0 1
33 11 2 0.4238 2.167437541379698 10.52143181877256 7.489569749063436 0 0 0
529 177 1 -0.8476 1.9348552531509913 13.685007237369986 5.72412868230848 1 0 0
530 177 2 0.4238 1.2397202963104337 13.95276718553346 5.042618457736964 1 0 0
413 138 2 0.4238 1.2516418620674696 15.710967892816488 2.2398928877804067 0 0 1
531 177 2 0.4238 1.4492395621730008 12.945130664569595 6.2821898639652956 1 0 0
277 93 1 -0.8476 4.3720482052770855 17.09648347929351 3.345161584884111 0 0 0
631 211 1 -0.8476 2.595372530476468 17.483288619161414 5.2635953735718575 1 0 -1
632 211 2 0.4238 2.3238514251786806 16.97460443337132 6.115427521828459 1 0 -1
91 31 1 -0.8476 2.7715182636039657 9.507890089399396 3.077627983476994 0 1 0
206 69 2 0.4238 5.881342230697785 13.190743033856377 6.510308363287646 0 0 0
280 94 1 -0.8476 5.781840378736793 15.378315714110524 8.30022088844531 0 0 0
240 80 2 0.4238 0.9252756584454239 12.715294324718036 2.0469545120728254 0 0 1
345 115 2 0.4238 2.101410485487725 11.300749155610319 0.4181182121741136 0 0 0
633 211 2 0.4238 2.1332542794141887 18.39426243164445 5.262574035385474 1 0 -1
92 31 2 0.4238 3.251254692490407 10.157509325459017 3.7585102970269233 0 1 0
101 34 2 0.4238 0.5497320921867802 18.178594863047408 3.139803868401808 0 0 0
412 138 1 -0.8476 0.5056805972569468 16.376304261951447 2.0164063641183008 0 0 1
31 11 1 -0.8476 1.8529869892441235 10.908957570816295 6.625015950605827 0 0 0
32 11 2 0.4238 0.8409952692709605 10.868710648745406 6.702095554908493 0 0 0
357 119 2 0.4238 1.8335745089287594 16.695799818312796 8.208254374616772 0 -1 0
355 119 1 -0.8476 1.08142538603977 17.13546361147588 7.786277945459469 0 -1 0
576 192 2 0.4238 5.586430887950799 10.246544426052074 8.453018323984908 1 0 1
117 39 2 0.4238 2.4318609451196718 13.637578091257755 1.2432430992834276 0 -1 1
574 192 1 -0.8476 4.899686048216944 10.145673073540449 9.189554933775675 1 0 1
281 94 2 0.4238 5.656147051562642 16.074814426173866 9.026480676717146 0 0 0
343 115 1 -0.8476 2.3812148196491725 11.732732315509235 1.313896179440205 0 0 0
46 16 1 -0.8476 3.061857823963778 15.24041660063808 8.003725318836858 0 0 0
414 138 2 0.4238 0.7834751127424239 16.678661765156246 1.0875736822596285 0 0 1
278 93 2 0.4238 4.056155365201514 17.795983081066705 2.636950349056989 0 0 0
47 16 2 0.4238 4.083874720742857 15.236102271176875 8.005716049747694 0 0 0
365 122 2 0.4238 2.276136613200552 14.140506388143187 9.309496576320853 1 -1 0